<?xml version="1.0" encoding="UTF-8"?>

<!-- generated on 2025-09-22 23:48:33 by Eclipse SUMO GUI Version 1.22.0
<sumoConfiguration xmlns:xsi="http://www.w3.org/2001/XMLSchema-instance" xsi:noNamespaceSchemaLocation="http://sumo.dlr.de/xsd/sumoConfiguration.xsd">

    <input>
        <net-file value="mapa_final_sumo.net.xml"/>
        <route-files value="mapa_final_sumo.rou.xml"/>
    </input>

    <output>
        <tripinfo-output value="tripinfo.xml"/>
        <edgedata-output value="edgeData.xml"/>
    </output>

    <time>
        <step-length value="1.0"/>
    </time>

    <traci_server>
        <remote-port value="51706"/>
    </traci_server>

</sumoConfiguration>
-->

<tripinfos xmlns:xsi="http://www.w3.org/2001/XMLSchema-instance" xsi:noNamespaceSchemaLocation="http://sumo.dlr.de/xsd/tripinfo_file.xsd">
    <tripinfo id="t_1" depart="0.00" departLane="B3B2_0" departPos="5.10" departSpeed="0.00" departDelay="0.00" arrival="17.00" arrivalLane="B2B1_0" arrivalPos="85.60" arrivalSpeed="14.61" duration="17.00" routeLength="180.50" waitingTime="0.00" waitingCount="0" stopTime="0.00" timeLoss="4.02" rerouteNo="0" devices="tripinfo_t_1 routing_t_1" vType="DEFAULT_VEHTYPE" speedFactor="1.06" vaporized=""/>
    <tripinfo id="t_13" depart="0.00" departLane="D1D2_0" departPos="6.60" departSpeed="0.00" departDelay="0.00" arrival="17.00" arrivalLane="D2D3_0" arrivalPos="85.60" arrivalSpeed="13.56" duration="17.00" routeLength="179.00" waitingTime="0.00" waitingCount="0" stopTime="0.00" timeLoss="3.56" rerouteNo="0" devices="tripinfo_t_13 routing_t_13" vType="t_2" speedFactor="1.00" vaporized=""/>
    <tripinfo id="t_15" depart="3.00" departLane="B3B2_0" departPos="5.10" departSpeed="0.00" departDelay="3.00" arrival="22.00" arrivalLane="B2B1_0" arrivalPos="85.60" arrivalSpeed="10.67" duration="19.00" routeLength="180.50" waitingTime="0.00" waitingCount="0" stopTime="0.00" timeLoss="3.23" rerouteNo="0" devices="tripinfo_t_15 routing_t_15" vType="DEFAULT_VEHTYPE" speedFactor="0.83" vaporized=""/>
    <tripinfo id="t_27" depart="0.00" departLane="D4D3_0" departPos="5.10" departSpeed="0.00" departDelay="0.00" arrival="24.00" arrivalLane="D2D1_0" arrivalPos="85.60" arrivalSpeed="13.69" duration="24.00" routeLength="280.50" waitingTime="0.00" waitingCount="0" stopTime="0.00" timeLoss="4.39" rerouteNo="0" devices="tripinfo_t_27 routing_t_27" vType="DEFAULT_VEHTYPE" speedFactor="1.05" vaporized=""/>
    <tripinfo id="t_18" depart="0.00" departLane="D0D1_0" departPos="5.10" departSpeed="0.00" departDelay="0.00" arrival="25.00" arrivalLane="D2D3_0" arrivalPos="85.60" arrivalSpeed="12.86" duration="25.00" routeLength="280.50" waitingTime="0.00" waitingCount="0" stopTime="0.00" timeLoss="4.28" rerouteNo="0" devices="tripinfo_t_18 routing_t_18" vType="t_1" speedFactor="1.00" vaporized=""/>
    <tripinfo id="t_19" depart="3.00" departLane="B0B1_0" departPos="5.10" departSpeed="0.00" departDelay="3.00" arrival="29.00" arrivalLane="B2B3_0" arrivalPos="85.60" arrivalSpeed="13.77" duration="26.00" routeLength="280.50" waitingTime="0.00" waitingCount="0" stopTime="0.00" timeLoss="4.88" rerouteNo="0" devices="tripinfo_t_19 routing_t_19" vType="t_1" speedFactor="1.00" vaporized=""/>
    <tripinfo id="t_16" depart="0.00" departLane="C3B3_0" departPos="5.10" departSpeed="0.00" departDelay="0.00" arrival="31.00" arrivalLane="B2B1_0" arrivalPos="85.60" arrivalSpeed="13.26" duration="31.00" routeLength="280.29" waitingTime="1.00" waitingCount="1" stopTime="0.00" timeLoss="10.78" rerouteNo="0" devices="tripinfo_t_16 routing_t_16" vType="DEFAULT_VEHTYPE" speedFactor="1.05" vaporized=""/>
    <tripinfo id="t_20" depart="0.00" departLane="A1B1_0" departPos="5.10" departSpeed="0.00" departDelay="0.00" arrival="32.00" arrivalLane="B2B3_0" arrivalPos="85.60" arrivalSpeed="13.66" duration="32.00" routeLength="280.29" waitingTime="2.00" waitingCount="1" stopTime="0.00" timeLoss="10.27" rerouteNo="0" devices="tripinfo_t_20 routing_t_20" vType="t_1" speedFactor="1.00" vaporized=""/>
    <tripinfo id="t_14" depart="0.00" departLane="C1C2_0" departPos="5.10" departSpeed="0.00" departDelay="0.00" arrival="34.00" arrivalLane="C2C3_0" arrivalPos="85.60" arrivalSpeed="13.57" duration="34.00" routeLength="180.50" waitingTime="12.00" waitingCount="1" stopTime="0.00" timeLoss="20.83" rerouteNo="0" devices="tripinfo_t_14 routing_t_14" vType="DEFAULT_VEHTYPE" speedFactor="1.03" vaporized=""/>
    <tripinfo id="t_17" depart="0.00" departLane="C4C3_0" departPos="5.10" departSpeed="0.00" departDelay="0.00" arrival="35.00" arrivalLane="C2C1_0" arrivalPos="85.60" arrivalSpeed="11.15" duration="35.00" routeLength="280.50" waitingTime="2.00" waitingCount="1" stopTime="0.00" timeLoss="11.81" rerouteNo="0" devices="tripinfo_t_17 routing_t_17" vType="DEFAULT_VEHTYPE" speedFactor="0.89" vaporized=""/>
    <tripinfo id="t_3" depart="3.00" departLane="B4B3_0" departPos="5.10" departSpeed="0.00" departDelay="3.00" arrival="35.00" arrivalLane="B1B0_0" arrivalPos="85.60" arrivalSpeed="13.39" duration="32.00" routeLength="380.50" waitingTime="0.00" waitingCount="0" stopTime="0.00" timeLoss="4.24" rerouteNo="0" devices="tripinfo_t_3 routing_t_3" vType="DEFAULT_TAXITYPE" speedFactor="1.00" vaporized=""/>
    <tripinfo id="t_4" depart="3.00" departLane="C1C2_0" departPos="5.10" departSpeed="0.00" departDelay="3.00" arrival="36.00" arrivalLane="C2C3_0" arrivalPos="85.60" arrivalSpeed="11.80" duration="33.00" routeLength="180.50" waitingTime="9.00" waitingCount="1" stopTime="0.00" timeLoss="18.11" rerouteNo="0" devices="tripinfo_t_4 routing_t_4" vType="DEFAULT_VEHTYPE" speedFactor="0.88" vaporized=""/>
    <tripinfo id="t_6" depart="0.00" departLane="D3C3_0" departPos="5.10" departSpeed="0.00" departDelay="0.00" arrival="37.00" arrivalLane="B2B1_0" arrivalPos="85.60" arrivalSpeed="12.16" duration="37.00" routeLength="380.29" waitingTime="0.00" waitingCount="0" stopTime="0.00" timeLoss="7.06" rerouteNo="0" devices="tripinfo_t_6 routing_t_6" vType="DEFAULT_VEHTYPE" speedFactor="0.94" vaporized=""/>
    <tripinfo id="t_9" depart="0.00" departLane="D4C4_0" departPos="5.10" departSpeed="0.00" departDelay="0.00" arrival="37.00" arrivalLane="C2C1_0" arrivalPos="85.60" arrivalSpeed="13.54" duration="37.00" routeLength="380.30" waitingTime="0.00" waitingCount="0" stopTime="0.00" timeLoss="8.78" rerouteNo="0" devices="tripinfo_t_9 routing_t_9" vType="DEFAULT_VEHTYPE" speedFactor="1.02" vaporized=""/>
    <tripinfo id="t_10" depart="0.00" departLane="C0C1_0" departPos="5.10" departSpeed="0.00" departDelay="0.00" arrival="38.00" arrivalLane="C2C3_0" arrivalPos="85.60" arrivalSpeed="12.99" duration="38.00" routeLength="280.50" waitingTime="8.00" waitingCount="1" stopTime="0.00" timeLoss="16.10" rerouteNo="0" devices="tripinfo_t_10 routing_t_10" vType="DEFAULT_VEHTYPE" speedFactor="0.94" vaporized=""/>
    <tripinfo id="t_21" depart="0.00" departLane="E3D3_0" departPos="6.60" departSpeed="0.00" departDelay="0.00" arrival="38.00" arrivalLane="C2C1_0" arrivalPos="85.60" arrivalSpeed="12.92" duration="38.00" routeLength="378.79" waitingTime="0.00" waitingCount="0" stopTime="0.00" timeLoss="9.93" rerouteNo="0" devices="tripinfo_t_21 routing_t_21" vType="t_0" speedFactor="1.00" vaporized=""/>
    <tripinfo id="t_8" depart="0.00" departLane="B1C1_0" departPos="5.10" departSpeed="0.00" departDelay="0.00" arrival="40.00" arrivalLane="C2C3_0" arrivalPos="85.60" arrivalSpeed="15.66" duration="40.00" routeLength="280.29" waitingTime="6.00" waitingCount="1" stopTime="0.00" timeLoss="21.44" rerouteNo="0" devices="tripinfo_t_8 routing_t_8" vType="DEFAULT_VEHTYPE" speedFactor="1.16" vaporized=""/>
    <tripinfo id="t_11" depart="0.00" departLane="B0B1_0" departPos="5.10" departSpeed="0.00" departDelay="0.00" arrival="41.00" arrivalLane="C2C3_0" arrivalPos="85.60" arrivalSpeed="13.50" duration="41.00" routeLength="374.92" waitingTime="0.00" waitingCount="0" stopTime="0.00" timeLoss="13.01" rerouteNo="0" devices="tripinfo_t_11 routing_t_11" vType="DEFAULT_VEHTYPE" speedFactor="1.01" vaporized=""/>
    <tripinfo id="t_7" depart="0.00" departLane="C1B1_0" departPos="5.10" departSpeed="0.00" departDelay="0.00" arrival="43.00" arrivalLane="C2C3_0" arrivalPos="85.60" arrivalSpeed="12.71" duration="43.00" routeLength="370.56" waitingTime="0.00" waitingCount="0" stopTime="0.00" timeLoss="12.90" rerouteNo="1" devices="tripinfo_t_7 routing_t_7" vType="DEFAULT_VEHTYPE" speedFactor="0.94" vaporized=""/>
    <tripinfo id="t_5" depart="0.00" departLane="D2C2_0" departPos="5.10" departSpeed="0.00" departDelay="0.00" arrival="52.00" arrivalLane="B2A2_0" arrivalPos="85.60" arrivalSpeed="13.78" duration="52.00" routeLength="280.50" waitingTime="21.00" waitingCount="1" stopTime="0.00" timeLoss="31.55" rerouteNo="0" devices="tripinfo_t_5 routing_t_5" vType="t_1" speedFactor="1.00" vaporized=""/>
    <tripinfo id="t_26" depart="0.00" departLane="B4B3_0" departPos="5.10" departSpeed="0.00" departDelay="0.00" arrival="80.00" arrivalLane="D2E2_0" arrivalPos="85.60" arrivalSpeed="14.22" duration="80.00" routeLength="480.30" waitingTime="34.00" waitingCount="1" stopTime="0.00" timeLoss="45.15" rerouteNo="0" devices="tripinfo_t_26 routing_t_26" vType="DEFAULT_VEHTYPE" speedFactor="1.03" vaporized=""/>
    <tripinfo id="t_12" depart="0.00" departLane="A2B2_0" departPos="5.10" departSpeed="0.00" departDelay="0.00" arrival="81.00" arrivalLane="D2E2_0" arrivalPos="85.60" arrivalSpeed="14.52" duration="81.00" routeLength="380.50" waitingTime="38.00" waitingCount="2" stopTime="0.00" timeLoss="55.61" rerouteNo="0" devices="tripinfo_t_12 routing_t_12" vType="DEFAULT_VEHTYPE" speedFactor="1.08" vaporized=""/>
    <tripinfo id="t_24" depart="3.00" departLane="D1D2_0" departPos="5.10" departSpeed="0.00" departDelay="3.00" arrival="83.00" arrivalLane="B2A2_0" arrivalPos="85.60" arrivalSpeed="11.72" duration="80.00" routeLength="380.30" waitingTime="37.00" waitingCount="1" stopTime="0.00" timeLoss="46.93" rerouteNo="0" devices="tripinfo_t_24 routing_t_24" vType="DEFAULT_VEHTYPE" speedFactor="0.86" vaporized=""/>
    <tripinfo id="t_0" depart="0.00" departLane="A3A2_0" departPos="6.60" departSpeed="0.00" departDelay="0.00" arrival="84.00" arrivalLane="D2E2_0" arrivalPos="85.60" arrivalSpeed="13.68" duration="84.00" routeLength="478.80" waitingTime="30.00" waitingCount="2" stopTime="0.00" timeLoss="48.30" rerouteNo="0" devices="tripinfo_t_0 routing_t_0" vType="t_0" speedFactor="1.00" vaporized=""/>
    <tripinfo id="t_23" depart="0.00" departLane="E2D2_0" departPos="5.10" departSpeed="0.00" departDelay="0.00" arrival="85.00" arrivalLane="B2A2_0" arrivalPos="85.60" arrivalSpeed="12.28" duration="85.00" routeLength="380.50" waitingTime="38.00" waitingCount="2" stopTime="0.00" timeLoss="55.23" rerouteNo="0" devices="tripinfo_t_23 routing_t_23" vType="DEFAULT_VEHTYPE" speedFactor="0.94" vaporized=""/>
    <tripinfo id="t_2" depart="0.00" departLane="A4A3_0" departPos="6.60" departSpeed="0.00" departDelay="0.00" arrival="86.00" arrivalLane="D2E2_0" arrivalPos="85.60" arrivalSpeed="13.40" duration="86.00" routeLength="582.80" waitingTime="21.00" waitingCount="2" stopTime="0.00" timeLoss="43.19" rerouteNo="0" devices="tripinfo_t_2 routing_t_2" vType="t_2" speedFactor="1.00" vaporized=""/>
    <tripinfo id="t_28" depart="0.00" departLane="E4D4_0" departPos="5.10" departSpeed="0.00" departDelay="0.00" arrival="88.00" arrivalLane="D2E2_0" arrivalPos="85.60" arrivalSpeed="14.56" duration="88.00" routeLength="985.64" waitingTime="4.00" waitingCount="1" stopTime="0.00" timeLoss="23.05" rerouteNo="0" devices="tripinfo_t_28 routing_t_28" vType="DEFAULT_VEHTYPE" speedFactor="1.12" vaporized=""/>
    <tripinfo id="t_25" depart="0.00" departLane="E1E2_0" departPos="5.10" departSpeed="0.00" departDelay="0.00" arrival="96.00" arrivalLane="A2A3_0" arrivalPos="85.60" arrivalSpeed="15.10" duration="96.00" routeLength="574.93" waitingTime="29.00" waitingCount="2" stopTime="0.00" timeLoss="56.60" rerouteNo="0" devices="tripinfo_t_25 routing_t_25" vType="DEFAULT_VEHTYPE" speedFactor="1.09" vaporized=""/>
    <tripinfo id="t_30" depart="0.00" departLane="E0E1_0" departPos="5.10" departSpeed="0.00" departDelay="0.00" arrival="100.00" arrivalLane="A2A3_0" arrivalPos="85.60" arrivalSpeed="11.94" duration="100.00" routeLength="678.93" waitingTime="22.00" waitingCount="2" stopTime="0.00" timeLoss="45.44" rerouteNo="0" devices="tripinfo_t_30 routing_t_30" vType="DEFAULT_VEHTYPE" speedFactor="0.93" vaporized=""/>
</tripinfos>
